[Molden Format]
[Title]
                                                                                
[Atoms] AU
 c     1    6 0.23010763531197E+01 -.13285270518996E+01 0.00000000000000E+00
 c     2    6 0.23010763531197E+01 0.13285270518996E+01 0.00000000000000E+00
 c     3    6 0.00000000000000E+00 0.26570541037991E+01 0.00000000000000E+00
 c     4    6 -.23010763531197E+01 0.13285270518996E+01 0.00000000000000E+00
 c     5    6 -.23010763531197E+01 -.13285270518996E+01 0.00000000000000E+00
 c     6    6 0.00000000000000E+00 -.26570541037991E+01 0.00000000000000E+00
 h     7    1 0.41062547329614E+01 -.23707472754365E+01 0.00000000000000E+00
 h     8    1 0.41062547329614E+01 0.23707472754365E+01 0.00000000000000E+00
 h     9    1 0.00000000000000E+00 0.47414945508729E+01 0.00000000000000E+00
 h    10    1 -.41062547329614E+01 0.23707472754365E+01 0.00000000000000E+00
 h    11    1 -.41062547329614E+01 -.23707472754365E+01 0.00000000000000E+00
 h    12    1 0.00000000000000E+00 -.47414945508729E+01 0.00000000000000E+00
[FREQ]
 0.00000000000000E+00
 0.00000000000000E+00
 0.00000000000000E+00
 0.00000000000000E+00
 0.00000000000000E+00
 0.00000000000000E+00
 0.40136000000000E+03
 0.40136000000000E+03
 0.59977000000000E+03
 0.59977000000000E+03
 0.67013000000000E+03
 0.71213000000000E+03
 0.83751000000000E+03
 0.83751000000000E+03
 0.95519000000000E+03
 0.95519000000000E+03
 0.98008000000000E+03
 0.99239000000000E+03
 0.99828000000000E+03
 0.10359600000000E+04
 0.10359600000000E+04
 0.11355300000000E+04
 0.11575200000000E+04
 0.11575200000000E+04
 0.13326800000000E+04
 0.13715400000000E+04
 0.14745300000000E+04
 0.14745300000000E+04
 0.16112900000000E+04
 0.16112900000000E+04
 0.30809100000000E+04
 0.30910600000000E+04
 0.30910600000000E+04
 0.31057100000000E+04
 0.31057100000000E+04
 0.31153600000000E+04
[INT]
 0.00000000000000E+00
 0.00000000000000E+00
 0.00000000000000E+00
 0.00000000000000E+00
 0.00000000000000E+00
 0.00000000000000E+00
 0.00000000000000E+00
 0.00000000000000E+00
 0.00000000000000E+00
 0.00000000000000E+00
 0.87935380000000E+02
 0.00000000000000E+00
 0.00000000000000E+00
 0.00000000000000E+00
 0.00000000000000E+00
 0.00000000000000E+00
 0.00000000000000E+00
 0.00000000000000E+00
 0.00000000000000E+00
 0.50821600000000E+01
 0.50821600000000E+01
 0.00000000000000E+00
 0.00000000000000E+00
 0.00000000000000E+00
 0.00000000000000E+00
 0.00000000000000E+00
 0.63581500000000E+01
 0.63581500000000E+01
 0.00000000000000E+00
 0.00000000000000E+00
 0.00000000000000E+00
 0.00000000000000E+00
 0.00000000000000E+00
 0.38017010000000E+02
 0.38017010000000E+02
 0.00000000000000E+00
[FR-COORD]
 c  0.23010763531197E+01 -.13285270518996E+01 0.00000000000000E+00
 c  0.23010763531197E+01 0.13285270518996E+01 0.00000000000000E+00
 c  0.00000000000000E+00 0.26570541037991E+01 0.00000000000000E+00
 c  -.23010763531197E+01 0.13285270518996E+01 0.00000000000000E+00
 c  -.23010763531197E+01 -.13285270518996E+01 0.00000000000000E+00
 c  0.00000000000000E+00 -.26570541037991E+01 0.00000000000000E+00
 h  0.41062547329614E+01 -.23707472754365E+01 0.00000000000000E+00
 h  0.41062547329614E+01 0.23707472754365E+01 0.00000000000000E+00
 h  0.00000000000000E+00 0.47414945508729E+01 0.00000000000000E+00
 h  -.41062547329614E+01 0.23707472754365E+01 0.00000000000000E+00
 h  -.41062547329614E+01 -.23707472754365E+01 0.00000000000000E+00
 h  0.00000000000000E+00 -.47414945508729E+01 0.00000000000000E+00
[FR-NORM-COORD]
 vibration    1
 -.81274298000000E-02 -.11330599900000E-01 -.22331373340000E+00
 0.61840700000000E-04 -.11330599900000E-01 0.46307362500000E-01
 0.41564760000000E-02 -.42384836000000E-02 0.18544511190000E+00
 0.61840700000000E-04 0.28536328000000E-02 0.54961765400000E-01
 -.81274298000000E-02 0.28536328000000E-02 -.21465933050000E+00
 -.12222065100000E-01 -.42384836000000E-02 -.35379707990000E+00
 -.11339642700000E-01 -.16894315800000E-01 -.33246632910000E+00
 0.32740536000000E-02 -.16894315800000E-01 0.14867063950000E+00
 0.10580901700000E-01 -.42384836000000E-02 0.39696098460000E+00
 0.32740536000000E-02 0.84173487000000E-02 0.16411436120000E+00
 -.11339642700000E-01 0.84173487000000E-02 -.31702260740000E+00
 -.18646490900000E-01 -.42384836000000E-02 -.56531295260000E+00
 vibration    2
 0.15781392800000E+00 0.22532350610000E+00 0.20558444100000E-01
 -.13495694000000E-02 0.22532350610000E+00 -.45832757000000E-02
 -.80931318100000E-01 0.87483874000000E-01 -.10186746010000E+00
 -.13495694000000E-02 -.50355758100000E-01 -.17400992480000E+00
 0.15781392800000E+00 -.50355758100000E-01 -.14886820510000E+00
 0.23739567670000E+00 0.87483874000000E-01 -.51584020600000E-01
 0.22024525590000E+00 0.33345773790000E+00 0.96877209500000E-01
 -.63780897200000E-01 0.33345773790000E+00 0.52011985700000E-01
 -.20579397370000E+00 0.87483874000000E-01 -.12159096420000E+00
 -.63780897200000E-01 -.15848998990000E+00 -.25032869020000E+00
 0.22024525590000E+00 -.15848998990000E+00 -.20546346640000E+00
 0.36225833240000E+00 0.87483874000000E-01 -.31860516500000E-01
 vibration    3
 0.16398348600000E-01 0.16120293290000E+00 -.98992318300000E-01
 0.86385110100000E-01 0.16120293290000E+00 -.82971939200000E-01
 0.12137849080000E+00 0.22181324630000E+00 0.45158966400000E-01
 0.86385110100000E-01 0.28242355960000E+00 0.15726949290000E+00
 0.16398348600000E-01 0.28242355960000E+00 0.14124911390000E+00
 -.18595032100000E-01 0.22181324630000E+00 0.13118208300000E-01
 -.11053715000000E-01 0.11365456400000E+00 -.19951012170000E+00
 0.11383717370000E+00 0.11365456400000E+00 -.17092186680000E+00
 0.17628261800000E+00 0.22181324630000E+00 0.57726842200000E-01
 0.11383717370000E+00 0.32997192850000E+00 0.25778729640000E+00
 -.11053715000000E-01 0.32997192850000E+00 0.22919904150000E+00
 -.73499159300000E-01 0.22181324630000E+00 0.55033250000000E-03
 vibration    4
 -.14065051970000E+00 0.11350165220000E+00 0.23411993750000E+00
 -.16955326420000E+00 0.11350165220000E+00 0.30366565350000E+00
 -.18400463650000E+00 0.88471141200000E-01 0.19364956230000E+00
 -.16955326420000E+00 0.63440630200000E-01 0.14087754900000E-01
 -.14065051970000E+00 0.63440630200000E-01 -.55457961100000E-01
 -.12619914750000E+00 0.88471141200000E-01 0.54558130100000E-01
 -.12931351880000E+00 0.13313791380000E+00 0.32042679520000E+00
 -.18089026520000E+00 0.13313791380000E+00 0.44453064140000E+00
 -.20667863840000E+00 0.88471141200000E-01 0.24820769240000E+00
 -.18089026520000E+00 0.43804368600000E-01 -.72219102800000E-01
 -.12931351880000E+00 0.43804368600000E-01 -.19632294900000E+00
 -.10352514560000E+00 0.88471141200000E-01 0.00000000000000E+00
 vibration    5
 0.70201855100000E-01 -.90134860100000E-01 0.18947183360000E+00
 0.17779971440000E+00 -.90134860100000E-01 0.19985870730000E+00
 0.23159864400000E+00 0.30476194000000E-02 0.28922177600000E-01
 0.17779971440000E+00 0.96230098900000E-01 -.15240122580000E+00
 0.70201855100000E-01 0.96230098900000E-01 -.16278809960000E+00
 0.16402925500000E-01 0.30476194000000E-02 0.81484301000000E-02
 0.27996969400000E-01 -.16323586650000E+00 0.32357035110000E+00
 0.22000460010000E+00 -.16323586650000E+00 0.34210565500000E+00
 0.31600841550000E+00 0.30476194000000E-02 0.37070607800000E-01
 0.22000460010000E+00 0.16933110540000E+00 -.28649974340000E+00
 0.27996969400000E-01 0.16933110540000E+00 -.30503504730000E+00
 -.68006846000000E-01 0.30476194000000E-02 0.00000000000000E+00
 vibration    6
 -.16101827600000E+00 -.18146078400000E-01 -.72555221400000E-01
 -.79051892000000E-01 -.18146078400000E-01 -.17790032430000E+00
 -.38068700000000E-01 0.52838892400000E-01 -.29266671290000E+00
 -.79051892000000E-01 0.12382386320000E+00 -.30208799860000E+00
 -.16101827600000E+00 0.12382386320000E+00 -.19674289570000E+00
 -.20200146790000E+00 0.52838892400000E-01 -.81976507100000E-01
 -.19316930480000E+00 -.73833293800000E-01 0.17478211500000E-01
 -.46900863200000E-01 -.73833293800000E-01 -.17050939120000E+00
 0.26233357600000E-01 0.52838892400000E-01 -.37530921270000E+00
 -.46900863200000E-01 0.17951107860000E+00 -.39212143150000E+00
 -.19316930480000E+00 0.17951107860000E+00 -.20413382880000E+00
 -.26630352560000E+00 0.52838892400000E-01 0.66599270000000E-03
 vibration    7
 0.00000000000000E+00 0.00000000000000E+00 -.14352386080000E+00
 0.00000000000000E+00 0.00000000000000E+00 -.92028428200000E-01
 0.00000000000000E+00 0.00000000000000E+00 0.23555228910000E+00
 0.00000000000000E+00 0.00000000000000E+00 -.14352386080000E+00
 0.00000000000000E+00 0.00000000000000E+00 -.92028428200000E-01
 0.00000000000000E+00 0.00000000000000E+00 0.23555228910000E+00
 0.00000000000000E+00 0.00000000000000E+00 -.31813888810000E+00
 0.00000000000000E+00 0.00000000000000E+00 -.20399271360000E+00
 0.00000000000000E+00 0.00000000000000E+00 0.52213160170000E+00
 0.00000000000000E+00 0.00000000000000E+00 -.31813888810000E+00
 0.00000000000000E+00 0.00000000000000E+00 -.20399271360000E+00
 0.00000000000000E+00 0.00000000000000E+00 0.52213160170000E+00
 vibration    8
 0.00000000000000E+00 0.00000000000000E+00 0.18912881530000E+00
 0.00000000000000E+00 0.00000000000000E+00 -.21885971720000E+00
 0.00000000000000E+00 0.00000000000000E+00 0.29730901900000E-01
 0.00000000000000E+00 0.00000000000000E+00 0.18912881530000E+00
 0.00000000000000E+00 0.00000000000000E+00 -.21885971720000E+00
 0.00000000000000E+00 0.00000000000000E+00 0.29730901900000E-01
 0.00000000000000E+00 0.00000000000000E+00 0.41922806890000E+00
 0.00000000000000E+00 0.00000000000000E+00 -.48513039350000E+00
 0.00000000000000E+00 0.00000000000000E+00 0.65902324600000E-01
 0.00000000000000E+00 0.00000000000000E+00 0.41922806890000E+00
 0.00000000000000E+00 0.00000000000000E+00 -.48513039350000E+00
 0.00000000000000E+00 0.00000000000000E+00 0.65902324600000E-01
 vibration    9
 -.18154759450000E+00 0.22205230350000E+00 0.00000000000000E+00
 0.27263932000000E+00 0.21215242370000E+00 0.00000000000000E+00
 0.14893886700000E+00 -.73937808500000E-01 0.00000000000000E+00
 0.18154759450000E+00 -.22205230350000E+00 0.00000000000000E+00
 -.27263932000000E+00 -.21215242370000E+00 0.00000000000000E+00
 -.14893886700000E+00 0.73937808500000E-01 0.00000000000000E+00
 -.30733002880000E+00 0.18938267000000E-02 0.00000000000000E+00
 0.33056999300000E+00 0.10888354940000E+00 0.00000000000000E+00
 -.22301398900000E+00 -.73621260700000E-01 0.00000000000000E+00
 0.30733002880000E+00 -.18938267000000E-02 0.00000000000000E+00
 -.33056999300000E+00 -.10888354940000E+00 0.00000000000000E+00
 0.22301398900000E+00 0.73621260700000E-01 0.00000000000000E+00
 vibration   10
 -.26474425600000E+00 0.21951103900000E-01 0.00000000000000E+00
 -.16946047130000E+00 0.69140621700000E-01 0.00000000000000E+00
 0.31245856000000E-01 0.35243756540000E+00 0.00000000000000E+00
 0.26474425600000E+00 -.21951103900000E-01 0.00000000000000E+00
 0.16946047130000E+00 -.69140621700000E-01 0.00000000000000E+00
 -.31245856000000E-01 -.35243756540000E+00 0.00000000000000E+00
 -.12230114900000E+00 0.26661264510000E+00 0.00000000000000E+00
 0.11523772900000E-01 -.24337268080000E+00 0.00000000000000E+00
 -.46786061500000E-01 0.35092868480000E+00 0.00000000000000E+00
 0.12230114900000E+00 -.26661264510000E+00 0.00000000000000E+00
 -.11523772900000E-01 0.24337268080000E+00 0.00000000000000E+00
 0.46786061500000E-01 -.35092868480000E+00 0.00000000000000E+00
 vibration   11
 0.00000000000000E+00 0.00000000000000E+00 0.34139998200000E-01
 0.00000000000000E+00 0.00000000000000E+00 0.34139998200000E-01
 0.00000000000000E+00 0.00000000000000E+00 0.34139998200000E-01
 0.00000000000000E+00 0.00000000000000E+00 0.34139998200000E-01
 0.00000000000000E+00 0.00000000000000E+00 0.34139998200000E-01
 0.00000000000000E+00 0.00000000000000E+00 0.34139998200000E-01
 0.00000000000000E+00 0.00000000000000E+00 -.40681829750000E+00
 0.00000000000000E+00 0.00000000000000E+00 -.40681829750000E+00
 0.00000000000000E+00 0.00000000000000E+00 -.40681829750000E+00
 0.00000000000000E+00 0.00000000000000E+00 -.40681829750000E+00
 0.00000000000000E+00 0.00000000000000E+00 -.40681829750000E+00
 0.00000000000000E+00 0.00000000000000E+00 -.40681829750000E+00
 vibration   12
 0.00000000000000E+00 0.00000000000000E+00 -.19176997900000E+00
 0.00000000000000E+00 0.00000000000000E+00 0.19176997900000E+00
 0.00000000000000E+00 0.00000000000000E+00 -.19176997900000E+00
 0.00000000000000E+00 0.00000000000000E+00 0.19176997900000E+00
 0.00000000000000E+00 0.00000000000000E+00 -.19176997900000E+00
 0.00000000000000E+00 0.00000000000000E+00 0.19176997900000E+00
 0.00000000000000E+00 0.00000000000000E+00 -.36040385930000E+00
 0.00000000000000E+00 0.00000000000000E+00 0.36040385930000E+00
 0.00000000000000E+00 0.00000000000000E+00 -.36040385930000E+00
 0.00000000000000E+00 0.00000000000000E+00 0.36040385930000E+00
 0.00000000000000E+00 0.00000000000000E+00 -.36040385930000E+00
 0.00000000000000E+00 0.00000000000000E+00 0.36040385930000E+00
 vibration   13
 0.00000000000000E+00 0.00000000000000E+00 0.38674542500000E-01
 0.00000000000000E+00 0.00000000000000E+00 -.46706538400000E-01
 0.00000000000000E+00 0.00000000000000E+00 -.85381080900000E-01
 0.00000000000000E+00 0.00000000000000E+00 -.38674542500000E-01
 0.00000000000000E+00 0.00000000000000E+00 0.46706538400000E-01
 0.00000000000000E+00 0.00000000000000E+00 0.85381080900000E-01
 0.00000000000000E+00 0.00000000000000E+00 -.25825415110000E+00
 0.00000000000000E+00 0.00000000000000E+00 0.31188881990000E+00
 0.00000000000000E+00 0.00000000000000E+00 0.57014297110000E+00
 0.00000000000000E+00 0.00000000000000E+00 0.25825415110000E+00
 0.00000000000000E+00 0.00000000000000E+00 -.31188881990000E+00
 0.00000000000000E+00 0.00000000000000E+00 -.57014297110000E+00
 vibration   14
 0.00000000000000E+00 0.00000000000000E+00 -.76260822500000E-01
 0.00000000000000E+00 0.00000000000000E+00 -.71623547600000E-01
 0.00000000000000E+00 0.00000000000000E+00 0.46372750000000E-02
 0.00000000000000E+00 0.00000000000000E+00 0.76260822500000E-01
 0.00000000000000E+00 0.00000000000000E+00 0.71623547600000E-01
 0.00000000000000E+00 0.00000000000000E+00 -.46372750000000E-02
 0.00000000000000E+00 0.00000000000000E+00 0.50924129200000E+00
 0.00000000000000E+00 0.00000000000000E+00 0.47827530150000E+00
 0.00000000000000E+00 0.00000000000000E+00 -.30965990500000E-01
 0.00000000000000E+00 0.00000000000000E+00 -.50924129200000E+00
 0.00000000000000E+00 0.00000000000000E+00 -.47827530150000E+00
 0.00000000000000E+00 0.00000000000000E+00 0.30965990500000E-01
 vibration   15
 0.00000000000000E+00 0.00000000000000E+00 -.53478321300000E-01
 0.00000000000000E+00 0.00000000000000E+00 -.52105158200000E-01
 0.00000000000000E+00 0.00000000000000E+00 0.10558347950000E+00
 0.00000000000000E+00 0.00000000000000E+00 -.53478321300000E-01
 0.00000000000000E+00 0.00000000000000E+00 -.52105158200000E-01
 0.00000000000000E+00 0.00000000000000E+00 0.10558347950000E+00
 0.00000000000000E+00 0.00000000000000E+00 0.28748957460000E+00
 0.00000000000000E+00 0.00000000000000E+00 0.28010770310000E+00
 0.00000000000000E+00 0.00000000000000E+00 -.56759727770000E+00
 0.00000000000000E+00 0.00000000000000E+00 0.28748957460000E+00
 0.00000000000000E+00 0.00000000000000E+00 0.28010770310000E+00
 0.00000000000000E+00 0.00000000000000E+00 -.56759727770000E+00
 vibration   16
 0.00000000000000E+00 0.00000000000000E+00 0.91041577400000E-01
 0.00000000000000E+00 0.00000000000000E+00 -.91834373500000E-01
 0.00000000000000E+00 0.00000000000000E+00 0.79279610000000E-03
 0.00000000000000E+00 0.00000000000000E+00 0.91041577400000E-01
 0.00000000000000E+00 0.00000000000000E+00 -.91834373500000E-01
 0.00000000000000E+00 0.00000000000000E+00 0.79279610000000E-03
 0.00000000000000E+00 0.00000000000000E+00 -.48942269890000E+00
 0.00000000000000E+00 0.00000000000000E+00 0.49368462430000E+00
 0.00000000000000E+00 0.00000000000000E+00 -.42619255000000E-02
 0.00000000000000E+00 0.00000000000000E+00 -.48942269890000E+00
 0.00000000000000E+00 0.00000000000000E+00 0.49368462430000E+00
 0.00000000000000E+00 0.00000000000000E+00 -.42619255000000E-02
 vibration   17
 -.25196555900000E+00 0.14547238330000E+00 0.00000000000000E+00
 0.25196555900000E+00 0.14547238330000E+00 0.00000000000000E+00
 0.00000000000000E+00 -.29094476670000E+00 0.00000000000000E+00
 -.25196555900000E+00 0.14547238330000E+00 0.00000000000000E+00
 0.25196555900000E+00 0.14547238330000E+00 0.00000000000000E+00
 0.00000000000000E+00 -.29094476670000E+00 0.00000000000000E+00
 -.24801886430000E+00 0.14319375810000E+00 0.00000000000000E+00
 0.24801886430000E+00 0.14319375810000E+00 0.00000000000000E+00
 0.00000000000000E+00 -.28638751620000E+00 0.00000000000000E+00
 -.24801886430000E+00 0.14319375810000E+00 0.00000000000000E+00
 0.24801886430000E+00 0.14319375810000E+00 0.00000000000000E+00
 0.00000000000000E+00 -.28638751620000E+00 0.00000000000000E+00
 vibration   18
 0.00000000000000E+00 0.00000000000000E+00 -.63600567200000E-01
 0.00000000000000E+00 0.00000000000000E+00 0.63600567200000E-01
 0.00000000000000E+00 0.00000000000000E+00 -.63600567200000E-01
 0.00000000000000E+00 0.00000000000000E+00 0.63600567200000E-01
 0.00000000000000E+00 0.00000000000000E+00 -.63600567200000E-01
 0.00000000000000E+00 0.00000000000000E+00 0.63600567200000E-01
 0.00000000000000E+00 0.00000000000000E+00 0.40326372820000E+00
 0.00000000000000E+00 0.00000000000000E+00 -.40326372820000E+00
 0.00000000000000E+00 0.00000000000000E+00 0.40326372820000E+00
 0.00000000000000E+00 0.00000000000000E+00 -.40326372820000E+00
 0.00000000000000E+00 0.00000000000000E+00 0.40326372820000E+00
 0.00000000000000E+00 0.00000000000000E+00 -.40326372820000E+00
 vibration   19
 -.23803139930000E+00 0.13742749250000E+00 0.00000000000000E+00
 -.23803139930000E+00 -.13742749250000E+00 0.00000000000000E+00
 0.00000000000000E+00 -.27485498490000E+00 0.00000000000000E+00
 0.23803139930000E+00 -.13742749250000E+00 0.00000000000000E+00
 0.23803139930000E+00 0.13742749250000E+00 0.00000000000000E+00
 0.00000000000000E+00 0.27485498490000E+00 0.00000000000000E+00
 -.26142121750000E+00 0.15093161030000E+00 0.00000000000000E+00
 -.26142121750000E+00 -.15093161030000E+00 0.00000000000000E+00
 0.00000000000000E+00 -.30186322060000E+00 0.00000000000000E+00
 0.26142121750000E+00 -.15093161030000E+00 0.00000000000000E+00
 0.26142121750000E+00 0.15093161030000E+00 0.00000000000000E+00
 0.00000000000000E+00 0.30186322060000E+00 0.00000000000000E+00
 vibration   20
 0.73981057400000E-01 0.38934082300000E-01 0.00000000000000E+00
 -.89182953900000E-01 0.19804990200000E-01 0.00000000000000E+00
 0.89653315000000E-02 -.11193464250000E+00 0.00000000000000E+00
 0.73981057400000E-01 0.38934082300000E-01 0.00000000000000E+00
 -.89182953900000E-01 0.19804990200000E-01 0.00000000000000E+00
 0.89653315000000E-02 -.11193464250000E+00 0.00000000000000E+00
 0.29325411330000E+00 0.41131973490000E+00 0.00000000000000E+00
 -.28269471650000E+00 0.34379639970000E+00 0.00000000000000E+00
 0.63756622100000E-01 -.12122825060000E+00 0.00000000000000E+00
 0.29325411330000E+00 0.41131973490000E+00 0.00000000000000E+00
 -.28269471650000E+00 0.34379639970000E+00 0.00000000000000E+00
 0.63756622100000E-01 -.12122825060000E+00 0.00000000000000E+00
 vibration   21
 -.74397795600000E-01 0.78138767400000E-01 0.00000000000000E+00
 -.55268703500000E-01 -.85025243900000E-01 0.00000000000000E+00
 0.76470929200000E-01 0.13123041500000E-01 0.00000000000000E+00
 -.74397795600000E-01 0.78138767400000E-01 0.00000000000000E+00
 -.55268703500000E-01 -.85025243900000E-01 0.00000000000000E+00
 0.76470929200000E-01 0.13123041500000E-01 0.00000000000000E+00
 0.11272187700000E-01 0.24371010070000E+00 0.00000000000000E+00
 0.78795523000000E-01 -.33223872910000E+00 0.00000000000000E+00
 0.54382017330000E+00 0.14212609500000E-01 0.00000000000000E+00
 0.11272187700000E-01 0.24371010070000E+00 0.00000000000000E+00
 0.78795523000000E-01 -.33223872910000E+00 0.00000000000000E+00
 0.54382017330000E+00 0.14212609500000E-01 0.00000000000000E+00
 vibration   22
 0.99270513000000E-02 0.17194157200000E-01 0.00000000000000E+00
 0.99270513000000E-02 -.17194157200000E-01 0.00000000000000E+00
 -.19854102600000E-01 0.00000000000000E+00 0.00000000000000E+00
 0.99270513000000E-02 0.17194157200000E-01 0.00000000000000E+00
 0.99270513000000E-02 -.17194157200000E-01 0.00000000000000E+00
 -.19854102600000E-01 0.00000000000000E+00 0.00000000000000E+00
 0.20388261410000E+00 0.35313504630000E+00 0.00000000000000E+00
 0.20388261410000E+00 -.35313504630000E+00 0.00000000000000E+00
 -.40776522810000E+00 0.00000000000000E+00 0.00000000000000E+00
 0.20388261410000E+00 0.35313504630000E+00 0.00000000000000E+00
 0.20388261410000E+00 -.35313504630000E+00 0.00000000000000E+00
 -.40776522810000E+00 0.00000000000000E+00 0.00000000000000E+00
 vibration   23
 -.27904835000000E-01 -.43121589200000E-01 0.00000000000000E+00
 -.26599638000000E-01 0.39509506300000E-01 0.00000000000000E+00
 -.37807540000000E-02 0.58867105000000E-02 0.00000000000000E+00
 0.27904835000000E-01 0.43121589200000E-01 0.00000000000000E+00
 0.26599638000000E-01 -.39509506300000E-01 0.00000000000000E+00
 0.37807540000000E-02 -.58867105000000E-02 0.00000000000000E+00
 -.25972962920000E+00 -.44517682370000E+00 0.00000000000000E+00
 -.24126272520000E+00 0.41197540380000E+00 0.00000000000000E+00
 -.37986725100000E-01 0.52959923000000E-02 0.00000000000000E+00
 0.25972962920000E+00 0.44517682370000E+00 0.00000000000000E+00
 0.24126272520000E+00 -.41197540380000E+00 0.00000000000000E+00
 0.37986725100000E-01 -.52959923000000E-02 0.00000000000000E+00
 vibration   24
 -.80413342000000E-02 -.24514201000000E-01 0.00000000000000E+00
 0.11653417000000E-01 -.29990272000000E-01 0.00000000000000E+00
 -.57049633800000E-01 -.39012000000000E-03 0.00000000000000E+00
 0.80413342000000E-02 0.24514201000000E-01 0.00000000000000E+00
 -.11653417000000E-01 0.29990272000000E-01 0.00000000000000E+00
 0.57049633800000E-01 0.39012000000000E-03 0.00000000000000E+00
 -.12272733310000E+00 -.22209387650000E+00 0.00000000000000E+00
 0.15592875300000E+00 -.27889847800000E+00 0.00000000000000E+00
 -.57320014910000E+00 -.35097230000000E-03 0.00000000000000E+00
 0.12272733310000E+00 0.22209387650000E+00 0.00000000000000E+00
 -.15592875300000E+00 0.27889847800000E+00 0.00000000000000E+00
 0.57320014910000E+00 0.35097230000000E-03 0.00000000000000E+00
 vibration   25
 0.30231261300000E-01 0.52362080600000E-01 0.00000000000000E+00
 -.30231261300000E-01 0.52362080600000E-01 0.00000000000000E+00
 -.60462522700000E-01 0.00000000000000E+00 0.00000000000000E+00
 -.30231261300000E-01 -.52362080600000E-01 0.00000000000000E+00
 0.30231261300000E-01 -.52362080600000E-01 0.00000000000000E+00
 0.60462522700000E-01 0.00000000000000E+00 0.00000000000000E+00
 -.20187307280000E+00 -.34965441870000E+00 0.00000000000000E+00
 0.20187307280000E+00 -.34965441870000E+00 0.00000000000000E+00
 0.40374614550000E+00 0.00000000000000E+00 0.00000000000000E+00
 0.20187307280000E+00 0.34965441870000E+00 0.00000000000000E+00
 -.20187307280000E+00 0.34965441870000E+00 0.00000000000000E+00
 -.40374614550000E+00 0.00000000000000E+00 0.00000000000000E+00
 vibration   26
 0.17655849310000E+00 0.30580828050000E+00 0.00000000000000E+00
 0.17655849310000E+00 -.30580828050000E+00 0.00000000000000E+00
 -.35311698620000E+00 0.00000000000000E+00 0.00000000000000E+00
 0.17655849310000E+00 0.30580828050000E+00 0.00000000000000E+00
 0.17655849310000E+00 -.30580828050000E+00 0.00000000000000E+00
 -.35311698620000E+00 0.00000000000000E+00 0.00000000000000E+00
 -.10243908040000E+00 -.17742969180000E+00 0.00000000000000E+00
 -.10243908040000E+00 0.17742969180000E+00 0.00000000000000E+00
 0.20487816070000E+00 0.00000000000000E+00 0.00000000000000E+00
 -.10243908040000E+00 -.17742969180000E+00 0.00000000000000E+00
 -.10243908040000E+00 0.17742969180000E+00 0.00000000000000E+00
 0.20487816070000E+00 0.00000000000000E+00 0.00000000000000E+00
 vibration   27
 -.11499843860000E+00 -.72435032100000E-01 0.00000000000000E+00
 0.10333668200000E+00 -.10791693020000E+00 0.00000000000000E+00
 0.24897346800000E-01 0.98907779800000E-01 0.00000000000000E+00
 -.11499843860000E+00 -.72435032100000E-01 0.00000000000000E+00
 0.10333668200000E+00 -.10791693020000E+00 0.00000000000000E+00
 0.24897346800000E-01 0.98907779800000E-01 0.00000000000000E+00
 0.13946680870000E+00 0.39633304120000E+00 0.00000000000000E+00
 -.21166651740000E+00 0.45339613240000E+00 0.00000000000000E+00
 -.85517940900000E-01 0.12077420630000E+00 0.00000000000000E+00
 0.13946680870000E+00 0.39633304120000E+00 0.00000000000000E+00
 -.21166651740000E+00 0.45339613240000E+00 0.00000000000000E+00
 -.85517940900000E-01 0.12077420630000E+00 0.00000000000000E+00
 vibration   28
 -.18138910500000E-01 0.12382216540000E+00 0.00000000000000E+00
 -.53620808600000E-01 -.94512955200000E-01 0.00000000000000E+00
 0.15320390140000E+00 -.16073620000000E-01 0.00000000000000E+00
 -.18138910500000E-01 0.12382216540000E+00 0.00000000000000E+00
 -.53620808600000E-01 -.94512955200000E-01 0.00000000000000E+00
 0.15320390140000E+00 -.16073620000000E-01 0.00000000000000E+00
 -.25066921200000E+00 -.24461190840000E+00 0.00000000000000E+00
 -.19360612080000E+00 0.10652141770000E+00 0.00000000000000E+00
 -.52622804700000E+00 -.19627158800000E-01 0.00000000000000E+00
 -.25066921200000E+00 -.24461190840000E+00 0.00000000000000E+00
 -.19360612080000E+00 0.10652141770000E+00 0.00000000000000E+00
 -.52622804700000E+00 -.19627158800000E-01 0.00000000000000E+00
 vibration   29
 -.77005381500000E-01 -.29823131890000E+00 0.00000000000000E+00
 -.92601890200000E-01 0.30472895100000E+00 0.00000000000000E+00
 0.13425368800000E-01 -.15459592900000E+00 0.00000000000000E+00
 0.77005381500000E-01 0.29823131890000E+00 0.00000000000000E+00
 0.92601890200000E-01 -.30472895100000E+00 0.00000000000000E+00
 -.13425368800000E-01 0.15459592900000E+00 0.00000000000000E+00
 0.24731656940000E+00 0.24357509090000E+00 0.00000000000000E+00
 0.24492658960000E+00 -.26243286100000E+00 0.00000000000000E+00
 -.15136318100000E-01 -.17329110450000E+00 0.00000000000000E+00
 -.24731656940000E+00 -.24357509090000E+00 0.00000000000000E+00
 -.24492658960000E+00 0.26243286100000E+00 0.00000000000000E+00
 0.15136318100000E-01 0.17329110450000E+00 0.00000000000000E+00
 vibration   30
 0.20680614700000E+00 0.96353299800000E-01 0.00000000000000E+00
 -.20030851500000E+00 0.73253971800000E-01 0.00000000000000E+00
 0.35044153690000E+00 0.59225495000000E-02 0.00000000000000E+00
 -.20680614700000E+00 -.96353299800000E-01 0.00000000000000E+00
 0.20030851500000E+00 -.73253971800000E-01 0.00000000000000E+00
 -.35044153690000E+00 -.59225495000000E-02 0.00000000000000E+00
 0.21763859300000E-01 -.25581412820000E+00 0.00000000000000E+00
 -.40621629400000E-01 -.23642903070000E+00 0.00000000000000E+00
 -.39510233610000E+00 0.66387592000000E-02 0.00000000000000E+00
 -.21763859300000E-01 0.25581412820000E+00 0.00000000000000E+00
 0.40621629400000E-01 0.23642903070000E+00 0.00000000000000E+00
 0.39510233610000E+00 -.66387592000000E-02 0.00000000000000E+00
 vibration   31
 0.29106156700000E-01 -.16804447400000E-01 0.00000000000000E+00
 -.29106156700000E-01 -.16804447400000E-01 0.00000000000000E+00
 0.00000000000000E+00 0.33608894800000E-01 0.00000000000000E+00
 0.29106156700000E-01 -.16804447400000E-01 0.00000000000000E+00
 -.29106156700000E-01 -.16804447400000E-01 0.00000000000000E+00
 0.00000000000000E+00 0.33608894800000E-01 0.00000000000000E+00
 -.35235327680000E+00 0.20343125920000E+00 0.00000000000000E+00
 0.35235327680000E+00 0.20343125920000E+00 0.00000000000000E+00
 0.00000000000000E+00 -.40686251840000E+00 0.00000000000000E+00
 -.35235327680000E+00 0.20343125920000E+00 0.00000000000000E+00
 0.35235327680000E+00 0.20343125920000E+00 0.00000000000000E+00
 0.00000000000000E+00 -.40686251840000E+00 0.00000000000000E+00
 vibration   32
 0.20226447000000E-01 -.13752674500000E-01 0.00000000000000E+00
 0.20447680200000E-01 0.13873309600000E-01 0.00000000000000E+00
 -.61435000000000E-05 -.49037819500000E-01 0.00000000000000E+00
 -.20226447000000E-01 0.13752674500000E-01 0.00000000000000E+00
 -.20447680200000E-01 -.13873309600000E-01 0.00000000000000E+00
 0.61435000000000E-05 0.49037819500000E-01 0.00000000000000E+00
 -.24704514180000E+00 0.14440509140000E+00 0.00000000000000E+00
 -.24960698540000E+00 -.14587810910000E+00 0.00000000000000E+00
 0.52511000000000E-05 0.57525495930000E+00 0.00000000000000E+00
 0.24704514180000E+00 -.14440509140000E+00 0.00000000000000E+00
 0.24960698540000E+00 0.14587810910000E+00 0.00000000000000E+00
 -.52511000000000E-05 -.57525495930000E+00 0.00000000000000E+00
 vibration   33
 0.37356528000000E-01 -.20378031500000E-01 0.00000000000000E+00
 -.37235892800000E-01 -.20296095800000E-01 0.00000000000000E+00
 0.20713829000000E-02 -.14544100000000E-03 0.00000000000000E+00
 -.37356528000000E-01 0.20378031500000E-01 0.00000000000000E+00
 0.37235892800000E-01 0.20296095800000E-01 0.00000000000000E+00
 -.20713829000000E-02 0.14544100000000E-03 0.00000000000000E+00
 -.43262034850000E+00 0.24875653830000E+00 0.00000000000000E+00
 0.43114733080000E+00 0.24789558900000E+00 0.00000000000000E+00
 -.17704806000000E-02 0.17061454000000E-02 0.00000000000000E+00
 0.43262034850000E+00 -.24875653830000E+00 0.00000000000000E+00
 -.43114733080000E+00 -.24789558900000E+00 0.00000000000000E+00
 0.17704806000000E-02 -.17061454000000E-02 0.00000000000000E+00
 vibration   34
 0.23679088100000E-01 -.10067179400000E-01 0.00000000000000E+00
 -.24034299900000E-01 -.10291798800000E-01 0.00000000000000E+00
 0.16920300000000E-04 -.51500495100000E-01 0.00000000000000E+00
 0.23679088100000E-01 -.10067179400000E-01 0.00000000000000E+00
 -.24034299900000E-01 -.10291798800000E-01 0.00000000000000E+00
 0.16920300000000E-04 -.51500495100000E-01 0.00000000000000E+00
 -.24876344040000E+00 0.13945648160000E+00 0.00000000000000E+00
 0.25281414710000E+00 0.14181774930000E+00 0.00000000000000E+00
 -.19564500000000E-04 0.57501604830000E+00 0.00000000000000E+00
 -.24876344040000E+00 0.13945648160000E+00 0.00000000000000E+00