[Molden Format]
[Title]
                                                                                
[Atoms] AU
 c     1    6 0.23010763531197E+01 -.13285270518996E+01 0.00000000000000E+00
 c     2    6 0.23010763531197E+01 0.13285270518996E+01 0.00000000000000E+00
 c     3    6 0.00000000000000E+00 0.26570541037991E+01 0.00000000000000E+00
 c     4    6 -.23010763531197E+01 0.13285270518996E+01 0.00000000000000E+00
 c     5    6 -.23010763531197E+01 -.13285270518996E+01 0.00000000000000E+00
 c     6    6 0.00000000000000E+00 -.26570541037991E+01 0.00000000000000E+00
 h     7    1 0.41062547329614E+01 -.23707472754365E+01 0.00000000000000E+00
 h     8    1 0.41062547329614E+01 0.23707472754365E+01 0.00000000000000E+00
 h     9    1 0.00000000000000E+00 0.47414945508729E+01 0.00000000000000E+00
 h    10    1 -.41062547329614E+01 0.23707472754365E+01 0.00000000000000E+00
 h    11    1 -.41062547329614E+01 -.23707472754365E+01 0.00000000000000E+00
 h    12    1 0.00000000000000E+00 -.47414945508729E+01 0.00000000000000E+00
[GTO]
    1 0
 s    5 1.00
 0.12384016938000E+04 0.55173650481097E-02
 0.18629004992000E+03 0.41088828555946E-01
 0.42251176346000E+02 0.18225382126490E+00
 0.11676557932000E+02 0.46828459437429E+00
 0.35930506482000E+01 0.44575817336002E+00
 s    1 1.00
 0.40245147363000E+00 0.10000000000000E+01
 s    1 1.00
 0.13090182668000E+00 0.10000000000000E+01
 p    3 1.00
 0.94680970621000E+01 0.56888332011037E-01
 0.20103545142000E+01 0.31294059336471E+00
 0.54771004707000E+00 0.76065016509135E+00
 p    1 1.00
 0.15268613795000E+00 0.10000000000000E+01
 d    1 1.00
 0.80000000000000E+00 0.10000000000000E+01
 
    2 0
 s    5 1.00
 0.12384016938000E+04 0.55173650481097E-02
 0.18629004992000E+03 0.41088828555946E-01
 0.42251176346000E+02 0.18225382126490E+00
 0.11676557932000E+02 0.46828459437429E+00
 0.35930506482000E+01 0.44575817336002E+00
 s    1 1.00
 0.40245147363000E+00 0.10000000000000E+01
 s    1 1.00
 0.13090182668000E+00 0.10000000000000E+01
 p    3 1.00
 0.94680970621000E+01 0.56888332011037E-01
 0.20103545142000E+01 0.31294059336471E+00
 0.54771004707000E+00 0.76065016509135E+00
 p    1 1.00
 0.15268613795000E+00 0.10000000000000E+01
 d    1 1.00
 0.80000000000000E+00 0.10000000000000E+01
 
    3 0
 s    5 1.00
 0.12384016938000E+04 0.55173650481097E-02
 0.18629004992000E+03 0.41088828555946E-01
 0.42251176346000E+02 0.18225382126490E+00
 0.11676557932000E+02 0.46828459437429E+00
 0.35930506482000E+01 0.44575817336002E+00
 s    1 1.00
 0.40245147363000E+00 0.10000000000000E+01
 s    1 1.00
 0.13090182668000E+00 0.10000000000000E+01
 p    3 1.00
 0.94680970621000E+01 0.56888332011037E-01
 0.20103545142000E+01 0.31294059336471E+00
 0.54771004707000E+00 0.76065016509135E+00
 p    1 1.00
 0.15268613795000E+00 0.10000000000000E+01
 d    1 1.00
 0.80000000000000E+00 0.10000000000000E+01
 
    4 0
 s    5 1.00
 0.12384016938000E+04 0.55173650481097E-02
 0.18629004992000E+03 0.41088828555946E-01
 0.42251176346000E+02 0.18225382126490E+00
 0.11676557932000E+02 0.46828459437429E+00
 0.35930506482000E+01 0.44575817336002E+00
 s    1 1.00
 0.40245147363000E+00 0.10000000000000E+01
 s    1 1.00
 0.13090182668000E+00 0.10000000000000E+01
 p    3 1.00
 0.94680970621000E+01 0.56888332011037E-01
 0.20103545142000E+01 0.31294059336471E+00
 0.54771004707000E+00 0.76065016509135E+00
 p    1 1.00
 0.15268613795000E+00 0.10000000000000E+01
 d    1 1.00
 0.80000000000000E+00 0.10000000000000E+01
 
    5 0
 s    5 1.00
 0.12384016938000E+04 0.55173650481097E-02
 0.18629004992000E+03 0.41088828555946E-01
 0.42251176346000E+02 0.18225382126490E+00
 0.11676557932000E+02 0.46828459437429E+00
 0.35930506482000E+01 0.44575817336002E+00
 s    1 1.00
 0.40245147363000E+00 0.10000000000000E+01
 s    1 1.00
 0.13090182668000E+00 0.10000000000000E+01
 p    3 1.00
 0.94680970621000E+01 0.56888332011037E-01
 0.20103545142000E+01 0.31294059336471E+00
 0.54771004707000E+00 0.76065016509135E+00
 p    1 1.00
 0.15268613795000E+00 0.10000000000000E+01
 d    1 1.00
 0.80000000000000E+00 0.10000000000000E+01
 
    6 0
 s    5 1.00
 0.12384016938000E+04 0.55173650481097E-02
 0.18629004992000E+03 0.41088828555946E-01
 0.42251176346000E+02 0.18225382126490E+00
 0.11676557932000E+02 0.46828459437429E+00
 0.35930506482000E+01 0.44575817336002E+00
 s    1 1.00
 0.40245147363000E+00 0.10000000000000E+01
 s    1 1.00
 0.13090182668000E+00 0.10000000000000E+01
 p    3 1.00
 0.94680970621000E+01 0.56888332011037E-01
 0.20103545142000E+01 0.31294059336471E+00
 0.54771004707000E+00 0.76065016509135E+00
 p    1 1.00
 0.15268613795000E+00 0.10000000000000E+01
 d    1 1.00
 0.80000000000000E+00 0.10000000000000E+01
 
    7 0
 s    3 1.00
 0.13010701000000E+02 0.33485484812989E-01
 0.19622572000000E+01 0.23472187088125E+00
 0.44453796000000E+00 0.81377028525955E+00
 s    1 1.00
 0.12194962000000E+00 0.10000000000000E+01
 
    8 0
 s    3 1.00
 0.13010701000000E+02 0.33485484812989E-01
 0.19622572000000E+01 0.23472187088125E+00
 0.44453796000000E+00 0.81377028525955E+00
 s    1 1.00
 0.12194962000000E+00 0.10000000000000E+01
 
    9 0
 s    3 1.00
 0.13010701000000E+02 0.33485484812989E-01
 0.19622572000000E+01 0.23472187088125E+00
 0.44453796000000E+00 0.81377028525955E+00
 s    1 1.00
 0.12194962000000E+00 0.10000000000000E+01
 
   10 0
 s    3 1.00
 0.13010701000000E+02 0.33485484812989E-01
 0.19622572000000E+01 0.23472187088125E+00
 0.44453796000000E+00 0.81377028525955E+00
 s    1 1.00
 0.12194962000000E+00 0.10000000000000E+01
 
   11 0
 s    3 1.00
 0.13010701000000E+02 0.33485484812989E-01
 0.19622572000000E+01 0.23472187088125E+00
 0.44453796000000E+00 0.81377028525955E+00
 s    1 1.00
 0.12194962000000E+00 0.10000000000000E+01
 
   12 0
 s    3 1.00
 0.13010701000000E+02 0.33485484812989E-01
 0.19622572000000E+01 0.23472187088125E+00
 0.44453796000000E+00 0.81377028525955E+00
 s    1 1.00
 0.12194962000000E+00 0.10000000000000E+01
 
[MO]
 Sym=     1a1g 
 Ene= -.99176851085589E+01
 Spin= Alpha
 Occup= 2.000000
     1 0.40383464974112E+00
     2 0.15842684657926E-01
     3 -.67119340670410E-02
     4 0.53528708837310E-03
     5 -.30904814456594E-03
     6 0.00000000000000E+00
     7 -.54074876911479E-03
     8 0.31220144741239E-03
     9 0.00000000000000E+00
    10 0.98050224753322E-04
    11 -.12508138308688E-03
    12 0.27031158333561E-04
    13 -.22313160784020E-03
    14 0.00000000000000E+00
    15 0.00000000000000E+00
    16 0.40383464974112E+00
    17 0.15842684657926E-01
    18 -.67119340670410E-02
    19 0.53528708837310E-03
    20 0.30904814456594E-03
    21 0.00000000000000E+00
    22 -.54074876911479E-03
    23 -.31220144741239E-03
    24 0.00000000000000E+00
    25 0.98050224753322E-04
    26 -.12508138308688E-03
    27 0.27031158333561E-04
    28 0.22313160784020E-03
    29 0.00000000000000E+00
    30 0.00000000000000E+00
    31 0.40383464974112E+00
    32 0.15842684657926E-01
    33 -.67119340670410E-02
    34 0.00000000000000E+00
    35 0.61809628913189E-03
    36 0.00000000000000E+00
    37 0.00000000000000E+00
    38 -.62440289482477E-03
    39 0.00000000000000E+00
    40 -.23664718700699E-03
    41 0.20961602867342E-03
    42 0.27031158333561E-04
    43 0.00000000000000E+00
    44 0.00000000000000E+00
    45 0.00000000000000E+00
    46 0.40383464974112E+00
    47 0.15842684657926E-01
    48 -.67119340670410E-02
    49 -.53528708837310E-03
    50 0.30904814456594E-03
    51 0.00000000000000E+00
    52 0.54074876911479E-03
    53 -.31220144741239E-03
    54 0.00000000000000E+00
    55 0.98050224753322E-04
    56 -.12508138308688E-03
    57 0.27031158333561E-04
    58 -.22313160784020E-03
    59 0.00000000000000E+00
    60 0.00000000000000E+00
    61 0.40383464974112E+00
    62 0.15842684657926E-01
    63 -.67119340670410E-02
    64 -.53528708837310E-03
    65 -.30904814456594E-03
    66 0.00000000000000E+00
    67 0.54074876911479E-03
    68 0.31220144741239E-03
    69 0.00000000000000E+00
    70 0.98050224753322E-04
    71 -.12508138308688E-03
    72 0.27031158333561E-04
    73 0.22313160784020E-03
    74 0.00000000000000E+00
    75 0.00000000000000E+00
    76 0.40383464974112E+00
    77 0.15842684657926E-01
    78 -.67119340670410E-02
    79 0.00000000000000E+00
    80 -.61809628913189E-03
    81 0.00000000000000E+00
    82 0.00000000000000E+00
    83 0.62440289482477E-03
    84 0.00000000000000E+00
    85 -.23664718700699E-03
    86 0.20961602867342E-03
    87 0.27031158333561E-04
    88 0.00000000000000E+00
    89 0.00000000000000E+00
    90 0.00000000000000E+00
    91 -.12211322684171E-02
    92 0.27441667959917E-02
    93 -.12211322684171E-02
    94 0.27441667959917E-02
    95 -.12211322684171E-02
    96 0.27441667959917E-02
    97 -.12211322684171E-02
    98 0.27441667959917E-02
    99 -.12211322684171E-02
   100 0.27441667959917E-02
   101 -.12211322684171E-02
   102 0.27441667959917E-02
 Sym=     1e1u (1)
 Ene= -.99176018838075E+01
 Spin= Alpha
 Occup= 2.000000
     1 0.49430059879305E+00
     2 0.22556334902106E-01
     3 -.68702911068810E-02
     4 -.66772234849694E-03
     5 -.74717223829959E-03
     6 0.00000000000000E+00
     7 0.62538593735733E-03
     8 -.34431108205354E-02
     9 0.00000000000000E+00
    10 0.36347964110837E-03
    11 -.24036473846063E-03
    12 -.12311490264774E-03
    13 0.17786118027060E-03
    14 0.00000000000000E+00
    15 0.00000000000000E+00
    16 0.49430059879305E+00
    17 0.22556334902106E-01
    18 -.68702911068810E-02
    19 -.66772234849694E-03
    20 0.74717223829959E-03
    21 0.00000000000000E+00
    22 0.62538593735733E-03
    23 0.34431108205354E-02
    24 0.00000000000000E+00
    25 0.36347964110837E-03
    26 -.24036473846063E-03
    27 -.12311490264774E-03
    28 -.17786118027060E-03
    29 0.00000000000000E+00
    30 0.00000000000000E+00
    31 0.00000000000000E+00
    32 0.00000000000000E+00
    33 0.00000000000000E+00
    34 -.19618626272368E-02
    35 0.00000000000000E+00
    36 0.00000000000000E+00
    37 -.53382569399002E-02
    38 0.00000000000000E+00
    39 0.00000000000000E+00
    40 0.00000000000000E+00
    41 0.00000000000000E+00
    42 0.00000000000000E+00
    43 0.78170555983959E-03
    44 0.00000000000000E+00
    45 0.00000000000000E+00
    46 -.49430059879305E+00
    47 -.22556334902107E-01
    48 0.68702911068810E-02
    49 -.66772234849694E-03
    50 -.74717223829959E-03
    51 0.00000000000000E+00
    52 0.62538593735733E-03
    53 -.34431108205354E-02
    54 0.00000000000000E+00
    55 -.36347964110837E-03
    56 0.24036473846063E-03
    57 0.12311490264774E-03
    58 -.17786118027060E-03
    59 0.00000000000000E+00
    60 0.00000000000000E+00
    61 -.49430059879305E+00
    62 -.22556334902107E-01
    63 0.68702911068810E-02
    64 -.66772234849694E-03
    65 0.74717223829959E-03
    66 0.00000000000000E+00
    67 0.62538593735733E-03
    68 0.34431108205354E-02
    69 0.00000000000000E+00
    70 -.36347964110837E-03
    71 0.24036473846063E-03
    72 0.12311490264774E-03
    73 0.17786118027060E-03
    74 0.00000000000000E+00
    75 0.00000000000000E+00
    76 0.00000000000000E+00
    77 0.00000000000000E+00
    78 0.00000000000000E+00
    79 -.19618626272368E-02
    80 0.00000000000000E+00
    81 0.00000000000000E+00
    82 -.53382569399002E-02
    83 0.00000000000000E+00
    84 0.00000000000000E+00
    85 0.00000000000000E+00
    86 0.00000000000000E+00
    87 0.00000000000000E+00
    88 -.78170555983959E-03
    89 0.00000000000000E+00
    90 0.00000000000000E+00
    91 -.23392486667469E-02
    92 0.24204450801624E-02
    93 -.23392486667469E-02
    94 0.24204450801624E-02
    95 0.00000000000000E+00
    96 0.00000000000000E+00
    97 0.23392486667470E-02
    98 -.24204450801624E-02
    99 0.23392486667470E-02
   100 -.24204450801624E-02
   101 0.00000000000000E+00
   102 0.00000000000000E+00
 Sym=     1e1u (2)
 Ene= -.99176018838075E+01
 Spin= Alpha
 Occup= 2.000000
     1 -.28538458377376E+00
     2 -.13022906027663E-01
     3 0.39665644199688E-02
     4 -.74717223829959E-03
     5 -.15304825343235E-02
     6 0.00000000000000E+00
     7 -.34431108205354E-02
     8 -.33503759808144E-02
     9 0.00000000000000E+00
    10 0.46712180446176E-03
    11 -.53820222664669E-03
    12 0.71080422184927E-04
    13 0.34862971509280E-03
    14 0.00000000000000E+00
    15 0.00000000000000E+00
    16 0.28538458377376E+00
    17 0.13022906027663E-01
    18 -.39665644199688E-02
    19 0.74717223829959E-03
    20 -.15304825343235E-02
    21 0.00000000000000E+00
    22 0.34431108205354E-02
    23 -.33503759808144E-02
    24 0.00000000000000E+00
    25 -.46712180446176E-03
    26 0.53820222664669E-03
    27 -.71080422184927E-04
    28 0.34862971509280E-03
    29 0.00000000000000E+00
    30 0.00000000000000E+00
    31 0.57076916754752E+00
    32 0.26045812055325E-01
    33 -.79331288399377E-02
    34 0.00000000000000E+00
    35 -.23634225558366E-03
    36 0.00000000000000E+00
    37 0.00000000000000E+00
    38 0.26132668964432E-02
    39 0.00000000000000E+00
    40 0.50797865099947E-04
    41 0.91362979269906E-04
    42 -.14216084436985E-03
    43 0.00000000000000E+00
    44 0.00000000000000E+00
    45 0.00000000000000E+00
    46 0.28538458377376E+00
    47 0.13022906027663E-01
    48 -.39665644199688E-02
    49 -.74717223829959E-03
    50 -.15304825343235E-02
    51 0.00000000000000E+00
    52 -.34431108205354E-02
    53 -.33503759808144E-02
    54 0.00000000000000E+00
    55 -.46712180446176E-03
    56 0.53820222664669E-03
    57 -.71080422184927E-04
    58 -.34862971509280E-03
    59 0.00000000000000E+00
    60 0.00000000000000E+00
    61 -.28538458377376E+00
    62 -.13022906027663E-01
    63 0.39665644199688E-02
    64 0.74717223829959E-03
    65 -.15304825343235E-02
    66 0.00000000000000E+00
    67 0.34431108205354E-02
    68 -.33503759808144E-02
    69 0.00000000000000E+00
    70 0.46712180446176E-03
    71 -.53820222664669E-03
    72 0.71080422184927E-04
    73 -.34862971509280E-03
    74 0.00000000000000E+00
    75 0.00000000000000E+00
    76 -.57076916754752E+00
    77 -.26045812055325E-01
    78 0.79331288399377E-02
    79 0.00000000000000E+00
    80 -.23634225558366E-03
    81 0.00000000000000E+00
    82 0.00000000000000E+00
    83 0.26132668964432E-02
    84 0.00000000000000E+00
    85 -.50797865099947E-04
    86 -.91362979269906E-04
    87 0.14216084436985E-03
    88 0.00000000000000E+00
    89 0.00000000000000E+00
    90 0.00000000000000E+00
    91 0.13505658474478E-02
    92 -.13974446185905E-02
    93 -.13505658474478E-02
    94 0.13974446185905E-02
    95 -.27011316948956E-02
    96 0.27948892371810E-02
    97 -.13505658474478E-02
    98 0.13974446185905E-02
    99 0.13505658474478E-02
   100 -.13974446185905E-02
   101 0.27011316948956E-02
   102 -.27948892371810E-02
 Sym=     1e2g (2)
 Ene= -.99173981012947E+01
 Spin= Alpha
 Occup= 2.000000
     1 -.49385955968353E+00
     2 -.25421906930881E-01
     3 0.28358452129041E-01
     4 0.44753502571139E-03
     5 -.16699275978549E-02
     6 0.00000000000000E+00
     7 -.21910102254255E-02
     8 0.29991763729813E-02
     9 0.00000000000000E+00
    10 0.10992344059858E-03
    11 -.83780275394679E-03
    12 0.72787931334821E-03
    13 -.19521222022751E-03
    14 0.00000000000000E+00
    15 0.00000000000000E+00
    16 0.49385955968353E+00
    17 0.25421906930881E-01
    18 -.28358452129041E-01
    19 -.44753502571139E-03
    20 -.16699275978549E-02
    21 0.00000000000000E+00
    22 0.21910102254255E-02
    23 0.29991763729813E-02
    24 0.00000000000000E+00
    25 -.10992344059858E-03
    26 0.83780275394679E-03
    27 -.72787931334821E-03
    28 -.19521222022751E-03
    29 0.00000000000000E+00
    30 0.00000000000000E+00
    31 0.00000000000000E+00
    32 0.00000000000000E+00
    33 0.00000000000000E+00
    34 -.24448644187348E-02
    35 0.00000000000000E+00
    36 0.00000000000000E+00
    37 0.30037156334383E-02
    38 0.00000000000000E+00
    39 0.00000000000000E+00
    40 0.00000000000000E+00
    41 0.00000000000000E+00
    42 0.00000000000000E+00
    43 0.75251397431786E-03
    44 0.00000000000000E+00
    45 0.00000000000000E+00
    46 -.49385955968353E+00
    47 -.25421906930881E-01
    48 0.28358452129041E-01
    49 -.44753502571139E-03
    50 0.16699275978549E-02
    51 0.00000000000000E+00
    52 0.21910102254255E-02
    53 -.29991763729813E-02
    54 0.00000000000000E+00
    55 0.10992344059858E-03
    56 -.83780275394679E-03
    57 0.72787931334821E-03
    58 -.19521222022751E-03
    59 0.00000000000000E+00
    60 0.00000000000000E+00
    61 0.49385955968353E+00
    62 0.25421906930881E-01
    63 -.28358452129041E-01
    64 0.44753502571139E-03
    65 0.16699275978549E-02
    66 0.00000000000000E+00
    67 -.21910102254255E-02
    68 -.29991763729813E-02
    69 0.00000000000000E+00
    70 -.10992344059858E-03
    71 0.83780275394679E-03
    72 -.72787931334821E-03
    73 -.19521222022751E-03
    74 0.00000000000000E+00
    75 0.00000000000000E+00
    76 0.00000000000000E+00
    77 0.00000000000000E+00
    78 0.00000000000000E+00
    79 0.24448644187348E-02
    80 0.00000000000000E+00
    81 0.00000000000000E+00
    82 -.30037156334383E-02
    83 0.00000000000000E+00
    84 0.00000000000000E+00
    85 0.00000000000000E+00
    86 0.00000000000000E+00
    87 0.00000000000000E+00
    88 0.75251397431786E-03
    89 0.00000000000000E+00
    90 0.00000000000000E+00
    91 0.16903930323980E-02
    92 -.48145328789402E-02
    93 -.16903930323980E-02
    94 0.48145328789402E-02
    95 0.00000000000000E+00
    96 0.00000000000000E+00
    97 0.16903930323980E-02
    98 -.48145328789402E-02
    99 -.16903930323980E-02
   100 0.48145328789402E-02
   101 0.00000000000000E+00
   102 0.00000000000000E+00
 Sym=     1e2g (1)
 Ene= -.99173981012947E+01
 Spin= Alpha
 Occup= 2.000000
     1 0.28512994972516E+00
     2 0.14677344809858E-01
     3 -.16372759970503E-01
     4 -.16699275978549E-02
     5 -.14807312705861E-02
     6 0.00000000000000E+00
     7 0.29991763729813E-02
     8 0.12721403471504E-02
     9 0.00000000000000E+00
    10 0.58823189044222E-03
    11 -.16799057294307E-03
    12 -.42024131749915E-03
    13 0.54716997353883E-03
    14 0.00000000000000E+00
    15 0.00000000000000E+00
    16 0.28512994972516E+00
    17 0.14677344809858E-01
    18 -.16372759970503E-01
    19 -.16699275978549E-02
    20 0.14807312705861E-02
    21 0.00000000000000E+00
    22 0.29991763729813E-02
    23 -.12721403471504E-02
    24 0.00000000000000E+00
    25 0.58823189044222E-03
    26 -.16799057294307E-03
    27 -.42024131749915E-03
    28 -.54716997353883E-03
    29 0.00000000000000E+00
    30 0.00000000000000E+00
    31 -.57025989945031E+00
    32 -.29354689619716E-01
    33 0.32745519941006E-01
    34 0.00000000000000E+00
    35 0.14116681738601E-02
    36 0.00000000000000E+00
    37 0.00000000000000E+00
    38 -.39225855117135E-02
    39 0.00000000000000E+00
    40 -.86288504611475E-03
    41 0.22402411116447E-04
    42 0.84048263499830E-03
    43 0.00000000000000E+00
    44 0.00000000000000E+00
    45 0.00000000000000E+00
    46 0.28512994972516E+00
    47 0.14677344809858E-01
    48 -.16372759970503E-01
    49 0.16699275978549E-02
    50 0.14807312705861E-02
    51 0.00000000000000E+00
    52 -.29991763729813E-02
    53 -.12721403471504E-02
    54 0.00000000000000E+00
    55 0.58823189044222E-03
    56 -.16799057294307E-03
    57 -.42024131749915E-03
    58 0.54716997353883E-03
    59 0.00000000000000E+00
    60 0.00000000000000E+00
    61 0.28512994972516E+00
    62 0.14677344809858E-01
    63 -.16372759970503E-01
    64 0.16699275978549E-02
    65 -.14807312705861E-02
    66 0.00000000000000E+00
    67 -.29991763729813E-02
    68 0.12721403471504E-02
    69 0.00000000000000E+00
    70 0.58823189044222E-03
    71 -.16799057294307E-03
    72 -.42024131749915E-03
    73 -.54716997353883E-03
    74 0.00000000000000E+00
    75 0.00000000000000E+00
    76 -.57025989945031E+00
    77 -.29354689619716E-01
    78 0.32745519941006E-01
    79 0.00000000000000E+00
    80 -.14116681738601E-02
    81 0.00000000000000E+00
    82 0.00000000000000E+00
    83 0.39225855117135E-02
    84 0.00000000000000E+00
    85 -.86288504611475E-03
    86 0.22402411116447E-04
    87 0.84048263499830E-03
    88 0.00000000000000E+00
    89 0.00000000000000E+00
    90 0.00000000000000E+00
    91 -.97594887229125E-03
    92 0.27796718536784E-02
    93 -.97594887229125E-03
    94 0.27796718536784E-02
    95 0.19518977445825E-02
    96 -.55593437073569E-02
    97 -.97594887229125E-03
    98 0.27796718536784E-02
    99 -.97594887229125E-03
   100 0.27796718536784E-02
   101 0.19518977445825E-02
   102 -.55593437073569E-02
 Sym=     1b2u 
 Ene= -.99173669832188E+01
 Spin= Alpha
 Occup= 2.000000
     1 0.40295947838634E+00
     2 0.22722433597562E-01
     3 -.34436922515239E-01
     4 -.14109803880269E-02
     5 0.81462990684864E-03
     6 0.00000000000000E+00
     7 0.29395359993646E-02
     8 -.16971419005257E-02
     9 0.00000000000000E+00
    10 0.20582223138912E-03
    11 0.71309886232294E-03
    12 -.91892109371205E-03
    13 0.50727663093382E-03
    14 0.00000000000000E+00
    15 0.00000000000000E+00
    16 -.40295947838634E+00
    17 -.22722433597562E-01
    18 0.34436922515239E-01
    19 0.14109803880269E-02
    20 0.81462990684864E-03
    21 0.00000000000000E+00
    22 -.29395359993646E-02
    23 -.16971419005257E-02
    24 0.00000000000000E+00
    25 -.20582223138912E-03
    26 -.71309886232294E-03
    27 0.91892109371205E-03
    28 0.50727663093382E-03
    29 0.00000000000000E+00
    30 0.00000000000000E+00
    31 0.40295947838634E+00
    32 0.22722433597562E-01
    33 -.34436922515239E-01
    34 0.00000000000000E+00
    35 -.16292598136973E-02
    36 0.00000000000000E+00
    37 0.00000000000000E+00
    38 0.33942838010514E-02
    39 0.00000000000000E+00
    40 0.96673717778985E-03
    41 -.47816084077794E-04
    42 -.91892109371205E-03
    43 0.00000000000000E+00
    44 0.00000000000000E+00
    45 0.00000000000000E+00
    46 -.40295947838634E+00
    47 -.22722433597562E-01
    48 0.34436922515239E-01
    49 -.14109803880269E-02
    50 0.81462990684864E-03
    51 0.00000000000000E+00
    52 0.29395359993646E-02
    53 -.16971419005257E-02
    54 0.00000000000000E+00
    55 -.20582223138912E-03
    56 -.71309886232294E-03
    57 0.91892109371205E-03
    58 -.50727663093382E-03
    59 0.00000000000000E+00
    60 0.00000000000000E+00
    61 0.40295947838634E+00
    62 0.22722433597562E-01
    63 -.34436922515239E-01
    64 0.14109803880269E-02
    65 0.81462990684864E-03
    66 0.00000000000000E+00
    67 -.29395359993646E-02
    68 -.16971419005257E-02
    69 0.00000000000000E+00
    70 0.20582223138912E-03
    71 0.71309886232294E-03
    72 -.91892109371205E-03
    73 -.50727663093382E-03
    74 0.00000000000000E+00
    75 0.00000000000000E+00
    76 -.40295947838634E+00
    77 -.22722433597562E-01
    78 0.34436922515239E-01
    79 0.00000000000000E+00
    80 -.16292598136973E-02
    81 0.00000000000000E+00
    82 0.00000000000000E+00
    83 0.33942838010514E-02
    84 0.00000000000000E+00
    85 -.96673717778985E-03
    86 0.47816084077794E-04
    87 0.91892109371205E-03
    88 0.00000000000000E+00
    89 0.00000000000000E+00
    90 0.00000000000000E+00
    91 -.94227467897097E-03
    92 0.51796557744627E-02
    93 0.94227467897097E-03
    94 -.51796557744627E-02
    95 -.94227467897097E-03
    96 0.51796557744627E-02
    97 0.94227467897097E-03
    98 -.51796557744627E-02
    99 -.94227467897097E-03
   100 0.51796557744627E-02
   101 0.94227467897097E-03
   102 -.51796557744627E-02
 Sym=     2a1g 
 Ene= -.76774308191134E+00
 Spin= Alpha
 Occup= 2.000000
     1 -.11958357460069E+00
     2 0.23137502208666E+00
     3 0.55360822493709E-01
     4 -.54159651358451E-01
     5 0.31269089291018E-01
     6 0.00000000000000E+00
     7 -.11087620850349E-01
     8 0.64014408826214E-02
     9 0.00000000000000E+00
    10 0.28131965577094E-02
    11 0.23822055892296E-02
    12 -.51954021469389E-02
    13 -.43099096847982E-03
    14 0.00000000000000E+00
    15 0.00000000000000E+00
    16 -.11958357460069E+00
    17 0.23137502208666E+00
    18 0.55360822493709E-01
    19 -.54159651358451E-01
    20 -.31269089291018E-01
    21 0.00000000000000E+00
    22 -.11087620850349E-01
    23 -.64014408826214E-02
    24 0.00000000000000E+00
    25 0.28131965577094E-02
    26 0.23822055892296E-02
    27 -.51954021469389E-02
    28 0.43099096847982E-03
    29 0.00000000000000E+00
    30 0.00000000000000E+00
    31 -.11958357460069E+00
    32 0.23137502208666E+00
    33 0.55360822493709E-01
    34 0.00000000000000E+00
    35 -.62538178582036E-01
    36 0.00000000000000E+00
    37 0.00000000000000E+00
    38 -.12802881765243E-01
    39 0.00000000000000E+00
    40 0.21667101049896E-02
    41 0.30286920419493E-02
    42 -.51954021469389E-02
    43 0.00000000000000E+00
    44 0.00000000000000E+00
    45 0.00000000000000E+00
    46 -.11958357460069E+00
    47 0.23137502208666E+00
    48 0.55360822493709E-01
    49 0.54159651358451E-01
    50 -.31269089291018E-01
    51 0.00000000000000E+00
    52 0.11087620850349E-01
    53 -.64014408826214E-02
    54 0.00000000000000E+00
    55 0.28131965577094E-02
    56 0.23822055892296E-02
    57 -.51954021469389E-02
    58 -.43099096847982E-03
    59 0.00000000000000E+00
    60 0.00000000000000E+00
    61 -.11958357460069E+00
    62 0.23137502208666E+00
    63 0.55360822493709E-01
    64 0.54159651358451E-01
    65 0.31269089291018E-01
    66 0.00000000000000E+00
    67 0.11087620850349E-01
    68 0.64014408826214E-02
    69 0.00000000000000E+00
    70 0.28131965577094E-02
    71 0.23822055892296E-02
    72 -.51954021469389E-02
    73 0.43099096847982E-03
    74 0.00000000000000E+00
    75 0.00000000000000E+00
    76 -.11958357460069E+00
    77 0.23137502208666E+00
    78 0.55360822493709E-01
    79 0.00000000000000E+00
    80 0.62538178582036E-01
    81 0.00000000000000E+00
    82 0.00000000000000E+00
    83 0.12802881765243E-01
    84 0.00000000000000E+00
    85 0.21667101049896E-02
    86 0.30286920419493E-02
    87 -.51954021469389E-02
    88 0.00000000000000E+00
    89 0.00000000000000E+00
    90 0.00000000000000E+00
    91 0.39870947382851E-01
    92 0.41413724909625E-02
    93 0.39870947382851E-01
    94 0.41413724909625E-02
    95 0.39870947382851E-01
    96 0.41413724909625E-02
    97 0.39870947382851E-01
    98 0.41413724909625E-02
    99 0.39870947382851E-01
   100 0.41413724909625E-02
   101 0.39870947382851E-01
   102 0.41413724909625E-02
 Sym=     2e1u (1)
 Ene= -.66744811786926E+00
 Spin= Alpha
 Occup= 2.000000
     1 -.14520213165232E+00
     2 0.29240475453185E+00
     3 0.67741578734550E-01
     4 0.11717898756898E-01
     5 0.58248253556651E-01
     6 0.00000000000000E+00
     7 0.13938527200897E-01
     8 0.19518112166795E-01
     9 0.00000000000000E+00
    10 -.42231221940430E-03
    11 0.46341965834684E-02
    12 -.42118843640641E-02
    13 -.84403111910880E-03
    14 0.00000000000000E+00
    15 0.00000000000000E+00
    16 -.14520213165232E+00
    17 0.29240475453185E+00
    18 0.67741578734550E-01
    19 0.11717898756898E-01
    20 -.58248253556651E-01
    21 0.00000000000000E+00
    22 0.13938527200897E-01
    23 -.19518112166795E-01
    24 0.00000000000000E+00
    25 -.42231221940430E-03
    26 0.46341965834684E-02
    27 -.42118843640641E-02
    28 0.84403111910880E-03
    29 0.00000000000000E+00
    30 0.00000000000000E+00
    31 0.00000000000000E+00
    32 0.00000000000000E+00
    33 0.00000000000000E+00
    34 0.11260683336917E+00
    35 0.00000000000000E+00
    36 0.00000000000000E+00
    37 0.47744889141614E-01
    38 0.00000000000000E+00
    39 0.00000000000000E+00
    40 0.00000000000000E+00
    41 0.00000000000000E+00
    42 0.00000000000000E+00
    43 -.59005399219815E-02
    44 0.00000000000000E+00
    45 0.00000000000000E+00
    46 0.14520213165233E+00
    47 -.29240475453185E+00
    48 -.67741578734550E-01
    49 0.11717898756898E-01
    50 0.58248253556651E-01
    51 0.00000000000000E+00
    52 0.13938527200897E-01
    53 0.19518112166795E-01
    54 0.00000000000000E+00
    55 0.42231221940430E-03
    56 -.46341965834684E-02
    57 0.42118843640641E-02
    58 0.84403111910880E-03
    59 0.00000000000000E+00
    60 0.00000000000000E+00
    61 0.14520213165233E+00
    62 -.29240475453185E+00
    63 -.67741578734550E-01
    64 0.11717898756898E-01
    65 -.58248253556651E-01
    66 0.00000000000000E+00
    67 0.13938527200897E-01
    68 -.19518112166795E-01
    69 0.00000000000000E+00
    70 0.42231221940430E-03
    71 -.46341965834684E-02
    72 0.42118843640641E-02
    73 -.84403111910880E-03
    74 0.00000000000000E+00
    75 0.00000000000000E+00
    76 0.00000000000000E+00
    77 0.00000000000000E+00
    78 0.00000000000000E+00
    79 0.11260683336917E+00
    80 0.00000000000000E+00
    81 0.00000000000000E+00
    82 0.47744889141614E-01
    83 0.00000000000000E+00
    84 0.00000000000000E+00
    85 0.00000000000000E+00
    86 0.00000000000000E+00
    87 0.00000000000000E+00
    88 0.59005399219815E-02
    89 0.00000000000000E+00
    90 0.00000000000000E+00
    91 0.80319847520205E-01
    92 0.47407365473542E-02
    93 0.80319847520205E-01
    94 0.47407365473542E-02
    95 0.00000000000000E+00
    96 0.00000000000000E+00
    97 -.80319847520205E-01
    98 -.47407365473542E-02
    99 -.80319847520205E-01
   100 -.47407365473542E-02
   101 0.00000000000000E+00
   102 0.00000000000000E+00
 Sym=     2e1u (2)
 Ene= -.66744811786926E+00
 Spin= Alpha
 Occup= 2.000000
     1 0.83832489796377E-01
     2 -.16881996374129E+00
     3 -.39110618717723E-01
     4 0.58248253556651E-01
     5 0.78977188498414E-01
     6 0.00000000000000E+00
     7 0.19518112166795E-01
     8 0.36476101828042E-01
     9 0.00000000000000E+00
    10 -.48661953949251E-02
    11 0.24344628235371E-02
    12 0.24317325713880E-02
    13 -.29193767184983E-02
    14 0.00000000000000E+00
    15 0.00000000000000E+00
    16 -.83832489796377E-01
    17 0.16881996374129E+00
    18 0.39110618717723E-01
    19 -.58248253556651E-01