 Entering Gaussian System
 
 *********************************************
 Gaussian 98:  ??? No! this is from TURBOMOLE
 
 ********************************************* 

 
                         Standard orientation:                        
 ---------------------------------------------------------------------
 Center     Atomic     Atomic              Coordinates (Angstroms)
 Number     Number      Type              X           Y           Z
 ---------------------------------------------------------------------
    1          6             0        1.217677   -0.703026    0.000000
    2          6             0        1.217677    0.703026    0.000000
    3          6             0        0.000000    1.406052    0.000000
    4          6             0       -1.217677    0.703026    0.000000
    5          6             0       -1.217677   -0.703026    0.000000
    6          6             0        0.000000   -1.406052    0.000000
    7          1             0        2.172936   -1.254545    0.000000
    8          1             0        2.172936    1.254545    0.000000
    9          1             0        0.000000    2.509091    0.000000
   10          1             0       -2.172936    1.254545    0.000000
   11          1             0       -2.172936   -1.254545    0.000000
   12          1             0        0.000000   -2.509091    0.000000
 ---------------------------------------------------------------------



 Harmonic frequencies (cm**-1), IR intensities (KM/Mole),
 Raman scattering activities (A**4/AMU), Raman depolarization ratios,
 reduced masses (AMU), force constants (mDyne/A) and normal coordinates:
                     1                      2                      3 
                    ?A                     ?A                     ?A                
 Frequencies --     0.0000                 0.0000                 0.0000            
 Red. masses --     3.8830                 4.3150                 5.4540            
 Frc consts  --     0.0000                 0.0000                 0.0000            
 IR Inten    --     0.0000                 0.0000                 0.0000            
 Raman Activ --     0.0000                 0.0000                 0.0000            
 Depolar     --     0.0000                 0.0000                 0.0000            
 Atom AN      X      Y      Z        X      Y      Z        X      Y      Z
   1   6    -0.01  -0.01  -0.22     0.16   0.23   0.02     0.02   0.16  -0.10
   2   6     0.00  -0.01   0.05    -0.00   0.23  -0.00     0.09   0.16  -0.08
   3   6     0.00  -0.00   0.19    -0.08   0.09  -0.10     0.12   0.22   0.05
   4   6     0.00   0.00   0.05    -0.00  -0.05  -0.17     0.09   0.28   0.16
   5   6    -0.01   0.00  -0.21     0.16  -0.05  -0.15     0.02   0.28   0.14
   6   6    -0.01  -0.00  -0.35     0.24   0.09  -0.05    -0.02   0.22   0.01
   7   1    -0.01  -0.02  -0.33     0.22   0.33   0.10    -0.01   0.11  -0.20
   8   1     0.00  -0.02   0.15    -0.06   0.33   0.05     0.11   0.11  -0.17
   9   1     0.01  -0.00   0.40    -0.21   0.09  -0.12     0.18   0.22   0.06
  10   1     0.00   0.01   0.16    -0.06  -0.16  -0.25     0.11   0.33   0.26
  11   1    -0.01   0.01  -0.32     0.22  -0.16  -0.21    -0.01   0.33   0.23
  12   1    -0.02  -0.00  -0.57     0.36   0.09  -0.03    -0.07   0.22   0.00
                     4                      5                      6 
                    ?A                     ?A                     ?A                
 Frequencies --     0.0000                 0.0000                 0.0000            
 Red. masses --     5.2670                 4.1800                 5.4400            
 Frc consts  --     0.0000                 0.0000                 0.0000            
 IR Inten    --     0.0000                 0.0000                 0.0000            
 Raman Activ --     0.0000                 0.0000                 0.0000            
 Depolar     --     0.0000                 0.0000                 0.0000            
 Atom AN      X      Y      Z        X      Y      Z        X      Y      Z
   1   6    -0.14   0.11   0.23     0.07  -0.09   0.19    -0.16  -0.02  -0.07
   2   6    -0.17   0.11   0.30     0.18  -0.09   0.20    -0.08  -0.02  -0.18
   3   6    -0.18   0.09   0.19     0.23   0.00   0.03    -0.04   0.05  -0.29
   4   6    -0.17   0.06   0.01     0.18   0.10  -0.15    -0.08   0.12  -0.30
   5   6    -0.14   0.06  -0.06     0.07   0.10  -0.16    -0.16   0.12  -0.20
   6   6    -0.13   0.09   0.05     0.02   0.00   0.01    -0.20   0.05  -0.08
   7   1    -0.13   0.13   0.32     0.03  -0.16   0.32    -0.19  -0.07   0.02
   8   1    -0.18   0.13   0.44     0.22  -0.16   0.34    -0.05  -0.07  -0.17
   9   1    -0.21   0.09   0.25     0.32   0.00   0.04     0.03   0.05  -0.38
  10   1    -0.18   0.04  -0.07     0.22   0.17  -0.29    -0.05   0.18  -0.39
  11   1    -0.13   0.04  -0.20     0.03   0.17  -0.31    -0.19   0.18  -0.20
  12   1    -0.10   0.09   0.00    -0.07   0.00   0.00    -0.27   0.05   0.00
                     7                      8                      9 
                   e2u                    e2u                    e2g                
 Frequencies --   401.3600               401.3600               599.7700            
 Red. masses --     2.8690                 2.8690                 6.0530            
 Frc consts  --     0.0000                 0.0000                 0.0000            
 IR Inten    --     0.0000                 0.0000                 0.0000            
 Raman Activ --     0.0000                 0.0000                 0.0000            
 Depolar     --     0.0000                 0.0000                 0.0000            
 Atom AN      X      Y      Z        X      Y      Z        X      Y      Z
   1   6    -0.00  -0.00  -0.14     0.00   0.00   0.19    -0.18   0.22   0.00
   2   6    -0.00  -0.00  -0.09    -0.00   0.00  -0.22     0.27   0.21   0.00
   3   6    -0.00   0.00   0.24    -0.00   0.00   0.03     0.15  -0.07   0.00
   4   6    -0.00   0.00  -0.14    -0.00   0.00   0.19     0.18  -0.22  -0.00
   5   6     0.00   0.00  -0.09     0.00   0.00  -0.22    -0.27  -0.21   0.00
   6   6    -0.00  -0.00   0.24     0.00   0.00   0.03    -0.15   0.07  -0.00
   7   1    -0.00  -0.00  -0.32     0.00   0.00   0.42    -0.31   0.00  -0.00
   8   1    -0.00  -0.00  -0.20    -0.00   0.00  -0.49     0.33   0.11  -0.00
   9   1    -0.00   0.00   0.52     0.00   0.00   0.07    -0.22  -0.07   0.00
  10   1    -0.00   0.00  -0.32    -0.00  -0.00   0.42     0.31  -0.00   0.00
  11   1     0.00   0.00  -0.20     0.00  -0.00  -0.49    -0.33  -0.11   0.00
  12   1    -0.00  -0.00   0.52     0.00   0.00   0.07     0.22   0.07   0.00
                    10                     11                     12 
                   e2g                    a2u                    b1g                
 Frequencies --   599.7700               670.1300               712.1300            
 Red. masses --     6.0530                 1.0850                 3.4360            
 Frc consts  --     0.0000                 0.0000                 0.0000            
 IR Inten    --     0.0000                87.9400                 0.0000            
 Raman Activ --     0.0000                 0.0000                 0.0000            
 Depolar     --     0.0000                 0.0000                 0.0000            
 Atom AN      X      Y      Z        X      Y      Z        X      Y      Z
   1   6    -0.26   0.02   0.00    -0.00   0.00   0.03    -0.00   0.00  -0.19
   2   6    -0.17   0.07  -0.00    -0.00  -0.00   0.03     0.00   0.00   0.19
   3   6     0.03   0.35   0.00     0.00   0.00   0.03     0.00  -0.00  -0.19
   4   6     0.26  -0.02   0.00     0.00  -0.00   0.03     0.00  -0.00   0.19
   5   6     0.17  -0.07   0.00    -0.00  -0.00   0.03    -0.00  -0.00  -0.19
   6   6    -0.03  -0.35  -0.00    -0.00  -0.00   0.03    -0.00   0.00   0.19
   7   1    -0.12   0.27   0.00    -0.00  -0.00  -0.41     0.00  -0.00  -0.36
   8   1     0.01  -0.24   0.00     0.00   0.00  -0.41    -0.00  -0.00   0.36
   9   1    -0.05   0.35   0.00    -0.00  -0.00  -0.41    -0.00   0.00  -0.36
  10   1     0.12  -0.27  -0.00    -0.00   0.00  -0.41    -0.00   0.00   0.36
  11   1    -0.01   0.24  -0.00    -0.00  -0.00  -0.41     0.00   0.00  -0.36
  12   1     0.05  -0.35  -0.00     0.00  -0.00  -0.41    -0.00   0.00   0.36
                    13                     14                     15 
                   e1g                    e1g                    e2u                
 Frequencies --   837.5100               837.5100               955.1900            
 Red. masses --     1.2490                 1.2490                 1.3760            
 Frc consts  --     0.0000                 0.0000                 0.0000            
 IR Inten    --     0.0000                 0.0000                 0.0000            
 Raman Activ --     0.0000                 0.0000                 0.0000            
 Depolar     --     0.0000                 0.0000                 0.0000            
 Atom AN      X      Y      Z        X      Y      Z        X      Y      Z
   1   6    -0.00   0.00   0.04    -0.00   0.00  -0.08     0.00  -0.00  -0.05
   2   6     0.00   0.00  -0.05     0.00   0.00  -0.07     0.00   0.00  -0.05
   3   6    -0.00  -0.00  -0.09     0.00  -0.00   0.00     0.00   0.00   0.11
   4   6    -0.00   0.00  -0.04    -0.00  -0.00   0.08    -0.00   0.00  -0.05
   5   6    -0.00   0.00   0.05    -0.00  -0.00   0.07    -0.00  -0.00  -0.05
   6   6    -0.00   0.00   0.09    -0.00   0.00  -0.00     0.00  -0.00   0.11
   7   1    -0.00   0.00  -0.26    -0.00   0.00   0.51     0.00   0.00   0.29
   8   1    -0.00  -0.00   0.31     0.00  -0.00   0.48    -0.00   0.00   0.28
   9   1    -0.00  -0.00   0.57    -0.00  -0.00  -0.03     0.00   0.00  -0.57
  10   1     0.00   0.00   0.26     0.00   0.00  -0.51    -0.00   0.00   0.29
  11   1     0.00   0.00  -0.31     0.00  -0.00  -0.48    -0.00   0.00   0.28
  12   1     0.00  -0.00  -0.57     0.00   0.00   0.03    -0.00  -0.00  -0.57
                    16                     17                     18 
                   e2u                    b2u                    b1g                
 Frequencies --   955.1900               980.0800               992.3900            
 Red. masses --     1.3760                 6.5960                 1.2750            
 Frc consts  --     0.0000                 0.0000                 0.0000            
 IR Inten    --     0.0000                 0.0000                 0.0000            
 Raman Activ --     0.0000                 0.0000                 0.0000            
 Depolar     --     0.0000                 0.0000                 0.0000            
 Atom AN      X      Y      Z        X      Y      Z        X      Y      Z
   1   6    -0.00   0.00   0.09    -0.25   0.15  -0.00     0.00  -0.00  -0.06
   2   6     0.00   0.00  -0.09     0.25   0.15   0.00    -0.00  -0.00   0.06
   3   6    -0.00  -0.00   0.00    -0.00  -0.29  -0.00    -0.00   0.00  -0.06
   4   6    -0.00   0.00   0.09    -0.25   0.15  -0.00     0.00  -0.00   0.06
   5   6     0.00   0.00  -0.09     0.25   0.15   0.00    -0.00  -0.00  -0.06
   6   6     0.00  -0.00   0.00     0.00  -0.29   0.00    -0.00   0.00   0.06
   7   1    -0.00   0.00  -0.49    -0.25   0.14   0.00     0.00  -0.00   0.40
   8   1     0.00   0.00   0.49     0.25   0.14  -0.00    -0.00  -0.00  -0.40
   9   1    -0.00  -0.00  -0.00     0.00  -0.29   0.00    -0.00   0.00   0.40
  10   1    -0.00   0.00  -0.49    -0.25   0.14   0.00     0.00  -0.00  -0.40
  11   1     0.00   0.00   0.49     0.25   0.14  -0.00     0.00  -0.00   0.40
  12   1    -0.00  -0.00  -0.00     0.00  -0.29  -0.00    -0.00   0.00  -0.40
                    19                     20                     21 
                   a1g                    e1u                    e1u                
 Frequencies --   998.2800              1035.9600              1035.9600            
 Red. masses --     5.9950                 1.6230                 1.6230            
 Frc consts  --     0.0000                 0.0000                 0.0000            
 IR Inten    --     0.0000                 5.0800                 5.0800            
 Raman Activ --     0.0000                 0.0000                 0.0000            
 Depolar     --     0.0000                 0.0000                 0.0000            
 Atom AN      X      Y      Z        X      Y      Z        X      Y      Z
   1   6    -0.24   0.14   0.00     0.07   0.04  -0.00    -0.07   0.08  -0.00
   2   6    -0.24  -0.14  -0.00    -0.09   0.02   0.00    -0.06  -0.09   0.00
   3   6     0.00  -0.27   0.00     0.01  -0.11  -0.00     0.08   0.01  -0.00
   4   6     0.24  -0.14   0.00     0.07   0.04   0.00    -0.07   0.08   0.00
   5   6     0.24   0.14  -0.00    -0.09   0.02   0.00    -0.06  -0.09  -0.00
   6   6    -0.00   0.27  -0.00     0.01  -0.11  -0.00     0.08   0.01   0.00
   7   1    -0.26   0.15  -0.00     0.29   0.41   0.00     0.01   0.24   0.00
   8   1    -0.26  -0.15   0.00    -0.28   0.34  -0.00     0.08  -0.33   0.00
   9   1     0.00  -0.30  -0.00     0.06  -0.12   0.00     0.54   0.01   0.00
  10   1     0.26  -0.15   0.00     0.29   0.41   0.00     0.01   0.24  -0.00
  11   1     0.26   0.15   0.00    -0.28   0.34  -0.00     0.08  -0.33   0.00
  12   1     0.00   0.30   0.00     0.06  -0.12   0.00     0.54   0.01  -0.00
                    22                     23                     24 
                   b1u                    e2g                    e2g                
 Frequencies --  1135.5300              1157.5200              1157.5200            
 Red. masses --     1.0340                 1.1170                 1.1170            
 Frc consts  --     0.0000                 0.0000                 0.0000            
 IR Inten    --     0.0000                 0.0000                 0.0000            
 Raman Activ --     0.0000                 0.0000                 0.0000            
 Depolar     --     0.0000                 0.0000                 0.0000            
 Atom AN      X      Y      Z        X      Y      Z        X      Y      Z
   1   6     0.01   0.02   0.00    -0.03  -0.04   0.00    -0.01  -0.02  -0.00
   2   6     0.01  -0.02  -0.00    -0.03   0.04  -0.00     0.01  -0.03   0.00
   3   6    -0.02  -0.00  -0.00    -0.00   0.01  -0.00    -0.06  -0.00  -0.00
   4   6     0.01   0.02  -0.00     0.03   0.04   0.00     0.01   0.02  -0.00
   5   6     0.01  -0.02  -0.00     0.03  -0.04  -0.00    -0.01   0.03  -0.00
   6   6    -0.02   0.00  -0.00     0.00  -0.01   0.00     0.06   0.00  -0.00
   7   1     0.20   0.35  -0.00    -0.26  -0.45  -0.00    -0.12  -0.22   0.00
   8   1     0.20  -0.35  -0.00    -0.24   0.41   0.00     0.16  -0.28  -0.00
   9   1    -0.41  -0.00  -0.00    -0.04   0.01  -0.00    -0.57  -0.00   0.00
  10   1     0.20   0.35   0.00     0.26   0.45  -0.00     0.12   0.22   0.00
  11   1     0.20  -0.35   0.00     0.24  -0.41   0.00    -0.16   0.28  -0.00
  12   1    -0.41   0.00   0.00     0.04  -0.01   0.00     0.57   0.00  -0.00
                    25                     26                     27 
                   a2g                    b1u                    e1u                
 Frequencies --  1332.6800              1371.5400              1474.5300            
 Red. masses --     1.2490                 9.2400                 2.1350            
 Frc consts  --     0.0000                 0.0000                 0.0000            
 IR Inten    --     0.0000                 0.0000                 6.3600            
 Raman Activ --     0.0000                 0.0000                 0.0000            
 Depolar     --     0.0000                 0.0000                 0.0000            
 Atom AN      X      Y      Z        X      Y      Z        X      Y      Z
   1   6     0.03   0.05   0.00     0.18   0.31   0.00    -0.12  -0.07  -0.00
   2   6    -0.03   0.05  -0.00     0.18  -0.31   0.00     0.10  -0.11  -0.00
   3   6    -0.06  -0.00   0.00    -0.35  -0.00   0.00     0.02   0.10   0.00
   4   6    -0.03  -0.05   0.00     0.18   0.31  -0.00    -0.12  -0.07   0.00
   5   6     0.03  -0.05   0.00     0.18  -0.31  -0.00     0.10  -0.11  -0.00
   6   6     0.06  -0.00  -0.00    -0.35   0.00   0.00     0.02   0.10  -0.00
   7   1    -0.20  -0.35  -0.00    -0.10  -0.18  -0.00     0.14   0.40  -0.00
   8   1     0.20  -0.35  -0.00    -0.10   0.18  -0.00    -0.21   0.45  -0.00
   9   1     0.40  -0.00  -0.00     0.20  -0.00  -0.00    -0.09   0.12   0.00
  10   1     0.20   0.35  -0.00    -0.10  -0.18   0.00     0.14   0.40   0.00
  11   1    -0.20   0.35  -0.00    -0.10   0.18   0.00    -0.21   0.45   0.00
  12   1    -0.40  -0.00   0.00     0.20   0.00   0.00    -0.09   0.12  -0.00
                    28                     29                     30 
                   e1u                    e2g                    e2g                
 Frequencies --  1474.5300              1611.2900              1611.2900            
 Red. masses --     2.1350                 5.8580                 5.8580            
 Frc consts  --     0.0000                 0.0000                 0.0000            
 IR Inten    --     6.3600                 0.0000                 0.0000            
 Raman Activ --     0.0000                 0.0000                 0.0000            
 Depolar     --     0.0000                 0.0000                 0.0000            
 Atom AN      X      Y      Z        X      Y      Z        X      Y      Z
   1   6    -0.02   0.12   0.00    -0.08  -0.30  -0.00     0.21   0.10   0.00
   2   6    -0.05  -0.09  -0.00    -0.09   0.30   0.00    -0.20   0.07  -0.00
   3   6     0.15  -0.02  -0.00     0.01  -0.15   0.00     0.35   0.01  -0.00
   4   6    -0.02   0.12   0.00     0.08   0.30  -0.00    -0.21  -0.10   0.00
   5   6    -0.05  -0.09  -0.00     0.09  -0.30   0.00     0.20  -0.07  -0.00
   6   6     0.15  -0.02   0.00    -0.01   0.15   0.00    -0.35  -0.01  -0.00
   7   1    -0.25  -0.24  -0.00     0.25   0.24   0.00     0.02  -0.26  -0.00
   8   1    -0.19   0.11   0.00     0.24  -0.26  -0.00    -0.04  -0.24   0.00
   9   1    -0.53  -0.02  -0.00    -0.02  -0.17  -0.00    -0.40   0.01  -0.00
  10   1    -0.25  -0.24  -0.00    -0.25  -0.24   0.00    -0.02   0.26  -0.00
  11   1    -0.19   0.11   0.00    -0.24   0.26  -0.00     0.04   0.24   0.00
  12   1    -0.53  -0.02   0.00     0.02   0.17   0.00     0.40  -0.01   0.00
                    31                     32                     33 
                   b2u                    e2g                    e2g                
 Frequencies --  3080.9100              3091.0600              3091.0600            
 Red. masses --     1.0830                 1.0870                 1.0870            
 Frc consts  --     0.0000                 0.0000                 0.0000            
 IR Inten    --     0.0000                 0.0000                 0.0000            
 Raman Activ --     0.0000                 0.0000                 0.0000            
 Depolar     --     0.0000                 0.0000                 0.0000            
 Atom AN      X      Y      Z        X      Y      Z        X      Y      Z
   1   6     0.03  -0.02  -0.00     0.02  -0.01   0.00     0.04  -0.02  -0.00
   2   6    -0.03  -0.02  -0.00     0.02   0.01   0.00    -0.04  -0.02   0.00
   3   6    -0.00   0.03  -0.00    -0.00  -0.05   0.00     0.00  -0.00  -0.00
   4   6     0.03  -0.02  -0.00    -0.02   0.01   0.00    -0.04   0.02   0.00
   5   6    -0.03  -0.02  -0.00    -0.02  -0.01   0.00     0.04   0.02  -0.00
   6   6    -0.00   0.03  -0.00     0.00   0.05  -0.00    -0.00   0.00   0.00
   7   1    -0.35   0.20   0.00    -0.25   0.14  -0.00    -0.43   0.25  -0.00
   8   1     0.35   0.20   0.00    -0.25  -0.15  -0.00     0.43   0.25   0.00
   9   1     0.00  -0.41   0.00     0.00   0.58  -0.00    -0.00   0.00  -0.00
  10   1    -0.35   0.20   0.00     0.25  -0.14  -0.00     0.43  -0.25   0.00
  11   1     0.35   0.20   0.00     0.25   0.15  -0.00    -0.43  -0.25  -0.00
  12   1     0.00  -0.41   0.00    -0.00  -0.58  -0.00     0.00  -0.00   0.00
                    34                     35                     36 
                   e1u                    e1u                    a1g                
 Frequencies --  3105.7100              3105.7100              3115.3600            
 Red. masses --     1.0960                 1.0960                 1.1010            
 Frc consts  --     0.0000                 0.0000                 0.0000            
 IR Inten    --    38.0200                38.0200                 0.0000            
 Raman Activ --     0.0000                 0.0000                 0.0000            
 Depolar     --     0.0000                 0.0000                 0.0000            
 Atom AN      X      Y      Z        X      Y      Z        X      Y      Z
   1   6     0.02  -0.01   0.00    -0.04   0.02  -0.00     0.03  -0.02  -0.00
   2   6    -0.02  -0.01   0.00    -0.04  -0.02   0.00     0.03   0.02   0.00
   3   6     0.00  -0.05   0.00     0.00   0.00  -0.00     0.00   0.04  -0.00
   4   6     0.02  -0.01  -0.00    -0.04   0.02   0.00    -0.03   0.02  -0.00
   5   6    -0.02  -0.01   0.00    -0.04  -0.02  -0.00    -0.03  -0.02  -0.00
   6   6     0.00  -0.05   0.00     0.00   0.00   0.00     0.00  -0.04   0.00
   7   1    -0.25   0.14  -0.00     0.43  -0.25  -0.00    -0.35   0.20   0.00
   8   1     0.25   0.14  -0.00     0.43   0.25   0.00    -0.35  -0.20   0.00
   9   1    -0.00   0.58  -0.00    -0.00  -0.00  -0.00    -0.00  -0.41   0.00
  10   1    -0.25   0.14  -0.00     0.43  -0.25   0.00     0.35  -0.20   0.00
  11   1     0.25   0.14  -0.00     0.43   0.25  -0.00     0.35   0.20   0.00
  12   1    -0.00   0.58  -0.00    -0.00  -0.00   0.00    -0.00   0.41   0.00
